/*--------------------------------*- C++ -*----------------------------------*\
| =========                 |                                                 |
| \\      /  F ield         | OpenFOAM: The Open Source CFD Toolbox           |
|  \\    /   O peration     | Version:  v2106                                 |
|   \\  /    A nd           | Website:  www.openfoam.com                      |
|    \\/     M anipulation  |                                                 |
\*---------------------------------------------------------------------------*/
FoamFile
{
    version     2.0;
    format      ascii;
    arch        "LSB;label=32;scalar=64";
    class       volScalarField;
    location    "0";
    object      p;
}
// * * * * * * * * * * * * * * * * * * * * * * * * * * * * * * * * * * * * * //

dimensions      [0 2 -2 0 0 0 0];

internalField   nonuniform List<scalar> 
215040
(
0.00104324
-0.0004353
0.00370767
0.000890463
-0.00161813
0.00680933
-0.000158882
0.00348709
-0.00250289
0.00967631
0.000590772
-0.000666857
0.00614572
-0.00325007
0.0124243
0.00012361
0.00231976
-0.000915836
0.00859678
-0.00383847
0.015038
0.000399009
0.000405973
0.00416114
-0.00104623
0.0108918
-0.00429719
0.0175159
0.00027552
0.00154009
0.000940406
0.0058579
-0.00105176
0.0130418
-0.00464315
0.0198701
0.000343824
0.00100582
0.00285042
0.00149949
0.00746506
-0.000966988
0.0150626
-0.0048954
0.0221195
0.000337648
0.00128625
0.00196717
0.00408202
0.00211615
0.00898433
-0.000807967
0.0169643
-0.00507169
0.0242558
0.000357997
0.00123154
0.00244396
0.00290114
0.00528717
0.00276076
0.0104335
-0.000590024
0.0187701
-0.00519607
0.0262951
0.00037332
0.00129421
0.00236688
0.00354888
0.00385207
0.00645422
0.0034264
0.0118207
-0.000326864
0.0204988
-0.00525371
0.0282386
0.000389639
0.00132978
0.00248539
0.00345394
0.004653
0.00479562
0.00759268
0.00410462
0.0131549
-2.5994e-05
0.022154
-0.00527163
0.0301181
0.000406594
0.00137007
0.00255965
0.00362194
0.00454804
0.00573742
0.00573525
0.00870477
0.00479059
0.0144446
0.000302319
0.0237324
-0.00525177
0.0318999
0.000423356
0.0014125
0.00264119
0.00373073
0.00476557
0.00562603
0.00680909
0.00666663
0.0097943
0.00547963
0.0156958
0.000649036
0.0252532
-0.00521896
0.0336173
0.000440305
0.0014541
0.00272633
0.0038493
0.00491035
0.00589218
0.00669401
0.0078669
0.00758888
0.0108637
0.00616957
0.0169119
0.00100883
0.0267191
-0.00514589
0.0352678
0.00045727
0.00149585
0.00280993
0.00397252
0.00506781
0.00607231
0.00700874
0.00774974
0.00891151
0.00850091
0.0119143
0.00685648
0.0180953
0.00138349
0.028139
-0.00506206
0.0368544
0.000474168
0.001537
0.00289339
0.00409356
0.00523047
0.00626823
0.00722439
0.00811273
0.00879306
0.00994279
0.00940206
0.0129477
0.00753895
0.0192512
0.00176414
0.0295099
-0.00495915
0.0383893
0.000490839
0.00157698
0.00297565
0.0042137
0.00539047
0.00646983
0.00745882
0.00836367
0.00920479
0.00982353
0.0109615
0.0102916
0.0139648
0.00821595
0.0203804
0.00215116
0.0308446
-0.00484633
0.0398731
0.000507078
0.00161548
0.00305528
0.00433183
0.00554896
0.00666791
0.00769939
0.00863693
0.00949071
0.010285
0.0108417
0.0119681
0.0111688
0.014967
0.00888397
0.021487
0.00253817
0.0321416
-0.00472776
0.0413014
0.000522872
0.00165222
0.00313207
0.00444625
0.00570426
0.00686382
0.00793557
0.00891621
0.00980289
0.0106059
0.0113532
0.0118473
0.0129622
0.0120339
0.0159539
0.00954329
0.0225718
0.00292388
0.0334015
-0.00460671
0.0426844
0.000538467
0.00168712
0.00320545
0.00455603
0.00585431
0.00705564
0.00816931
0.00919059
0.0101213
0.0109571
0.0117089
0.0124097
0.0128401
0.0139442
0.0128866
0.0169263
0.0101943
0.0236336
0.00330757
0.0346272
-0.00447145
0.0440367
0.000553702
0.00172083
0.00327523
0.00466056
0.00599818
0.00724091
0.00839766
0.0094619
0.010434
0.0113143
0.0120998
0.0127996
0.0134542
0.0138203
0.0149146
0.0137271
0.0178857
0.0108351
0.0246769
0.00368818
0.0358307
-0.00433598
0.0453385
0.000568579
0.00175308
0.00334225
0.00475934
0.00613495
0.0074177
0.00861759
0.00972612
0.0107424
0.0116652
0.0124955
0.0132302
0.0138784
0.0144869
0.0147883
0.0158736
0.0145552
0.018833
0.011466
0.0257039
0.00406492
0.0370009
-0.00420004
0.0465986
0.00058261
0.00178386
0.00340598
0.00485394
0.00626397
0.00758539
0.00882724
0.00998038
0.0110423
0.0120108
0.0128845
0.013665
0.0143489
0.0149454
0.0155082
0.0157439
0.0168215
0.0153707
0.0197678
0.012087
0.0267123
0.00443725
0.0381508
-0.00406234
0.0478358
0.000596365
0.00181223
0.00346687
0.00494385
0.00638728
0.00774367
0.00902562
0.0102228
0.0113312
0.0123468
0.0132673
0.0140924
0.0148228
0.0154562
0.0160006
0.0165182
0.0166874
0.0177579
0.0161744
0.0206905
0.0126964
0.0277044
0.00480621
0.0392733
-0.00393011
0.0490445
0.000609569
0.0018391
0.00352367
0.0050287
0.00650393
0.00789413
0.00921217
0.0104514
0.0116061
0.0126694
0.0136392
0.0145123
0.0152883
0.015969
0.016552
0.0170443
0.0175165
0.0176194
0.0186834
0.0169658
0.0216008
0.0132959
0.0286819
0.00516699
0.0403701
-0.0037907
0.0502036
0.000621786
0.00186412
0.00357655
0.0051081
0.00661348
0.0080362
0.00938953
0.010666
0.0118645
0.0129765
0.0139959
0.0149195
0.0157455
0.016473
0.0171039
0.0176365
0.0180761
0.0185044
0.0185389
0.0195986
0.0177441
0.0225005
0.0138853
0.0296451
0.00552111
0.0414509
-0.00366398
0.0513609
0.000633291
0.00188634
0.00362517
0.00518087
0.00671563
0.00816893
0.00955664
0.0108695
0.0121066
0.0132646
0.0143345
0.0153102
0.0161887
0.0169674
0.0176465
0.0182277
0.01871
0.0190971
0.0194816
0.0194468
0.020503
0.0185118
0.0233898
0.0144633
0.0305943
0.00587178
0.0425091
-0.00352094
0.0524774
0.000644106
0.00190632
0.0036692
0.00524741
0.00680905
0.00829222
0.0097123
0.0110605
0.0123357
0.0135339
0.0146522
0.0156806
0.0166132
0.0174463
0.0181787
0.0188089
0.0193406
0.0197726
0.0201072
0.0204475
0.020344
0.0213973
0.0192679
0.0242682
0.0150314
0.0315319
0.00621261
0.0435551
-0.00338909
0.0535717
0.000654088
0.0019241
0.00370845
0.00530737
0.00689413
0.00840489
0.00985608
0.0112381
0.0125504
0.0137882
0.0149484
0.0160274
0.0170152
0.017905
0.0186932
0.0193787
0.0199605
0.0204426
0.0208245
0.0211062
0.0214034
0.0212298
0.0222821
0.0200123
0.025137
0.0155893
0.0324559
0.00654561
0.0445784
-0.00326158
0.0546349
0.000663018
0.00193934
0.00374306
0.00536032
0.00697007
0.00850671
0.00998686
0.0114017
0.0127492
0.014026
0.0152277
0.0163502
0.0173916
0.0183384
0.0191856
0.0199294
0.0205681
0.0211014
0.0215344
0.0218659
0.0220948
0.0223493
0.0221043
0.023157
0.0207455
0.0259965
0.0161365
0.033367
0.00687184
0.0455832
-0.00314225
0.0556949
0.000671169
0.00195178
0.00377265
0.00540594
0.00703686
0.00859673
0.0101046
0.0115497
0.0129319
0.0142457
0.0154881
0.0166544
0.0177409
0.0187439
0.0196509
0.0204559
0.0211548
0.0217475
0.0222322
0.0226158
0.0228976
0.0230728
0.0232852
0.0229682
0.0240226
0.0214681
0.026846
0.0166739
0.0342687
0.00719418
0.0465733
-0.0030177
0.056725
0.000678446
0.00196174
0.00379719
0.00544406
0.00709365
0.00867538
0.0102081
0.0116825
0.0130967
0.014447
0.0157284
0.0169373
0.0180695
0.0191196
0.0200855
0.020953
0.0217156
0.0223707
0.0229165
0.0233533
0.0236876
0.0239188
0.0240407
0.0242112
0.0238214
0.0248793
0.0221791
0.0276864
0.0172023
0.035161
0.00751175
0.0475485
-0.00289894
0.0577262
0.000684707
0.00196903
0.00381654
0.00547502
0.00714072
0.00874172
0.0102977
0.011799
0.0132434
0.014628
0.0159476
0.0171978
0.0183744
0.0194728
0.020488
0.0214167
0.0222447
0.0229656
0.0235763
0.0240759
0.0244645
0.0247492
0.0249303
0.0249983
0.0251278
0.0246645
0.0257267
0.0228801
0.0285183
0.0177212
0.0360419
0.00782022
0.0485105
-0.00278272
0.058716
0.000690092
0.00197379
0.0038305
0.00549862
0.00717806
0.00879611
0.0103731
0.0118987
0.0133721
0.0147882
0.0161442
0.0174347
0.0186546
0.0198002
0.0208653
0.0218458
0.0227377
0.0235266
0.0242059
0.0247727
0.0252257
0.0255666
0.0258011
0.0259325
0.0259467
0.0260354
0.0254974
0.0265655
0.0235707
0.0293418
0.0182297
0.0369121
0.00811968
0.0494574
-0.00267259
0.0596938
0.00069458
0.00197608
0.00383976
0.00551438
0.00720572
0.00883813
0.0104336
0.0119817
0.0134814
0.0149279
0.016318
0.0176467
0.0189093
0.0201002
0.0212151
0.0222475
0.0231936
0.0240497
0.0247996
0.0254374
0.0259599
0.0263669
0.0266589
0.0268436
0.0269253
0.0268856
0.0269339
0.0263203
0.0273963
0.0242515
0.0301568
0.0187296
0.0377713
0.00841301
0.0503921
-0.00256214
0.0606471
0.000698531
0.00197632
0.00384437
0.00552332
0.00722352
0.00886798
0.0104798
0.0120475
0.0135713
0.0150462
0.0164682
0.0178335
0.0191364
0.0203722
0.0215346
0.0226196
0.0236198
0.0245327
0.0253524
0.0260636
0.0266601
0.0271384
0.0274986
0.0277423
0.0278775
0.0279093
0.0278146
0.0278235
0.0271338
0.0282186
0.0249229
0.0309644
0.0192197
0.0386203
0.00870108
0.0513159
-0.00245713
0.0615912
0.000701647
0.00197514
0.00384487
0.00552587
0.00723189
0.00888623
0.0105109
0.0120966
0.0136417
0.0151424
0.0165951
0.0179941
0.0193358
0.0206143
0.0218239
0.0229589
0.0240145
0.0249835
0.0258627
0.0266465
0.0273196
0.0278739
0.028308
0.0286215
0.0288174
0.0289025
0.0288838
0.0287352
0.0287049
0.0279378
0.0290335
0.0255837
0.031764
0.0197019
0.0394622
0.00898502
0.0522269
-0.00235111
0.0625164
0.000703859
0.00197164
0.00384215
0.00552225
0.00723178
0.00889243
0.0105282
0.0121284
0.0136929
0.0152169
0.0166971
0.0181288
0.0195064
0.0208262
0.022081
0.0232653
0.0243741
0.0254006
0.0263386
0.0271843
0.0279327
0.028567
0.0290797
0.0294694
0.0297366
0.0298835
0.0299184
0.029851
0.0296465
0.0295775
0.0287329
0.0298403
0.0262354
0.0325561
0.0201749
0.040297
0.00925976
0.053126
-0.00224813
0.0634278
0.000705245
0.00196615
0.0038352
0.0055138
0.00722404
0.00888808
0.0105317
0.012144
0.0137248
0.0152695
0.0167751
0.0182365
0.0196488
0.0210067
0.0223054
0.0235376
0.024698
0.0257805
0.0267786
0.0276859
0.0284984
0.0292112
0.029807
0.0302776
0.0306231
0.0308438
0.0309414
0.0309265
0.0308088
0.0305492
0.0304422
0.0295182
0.0306392
0.026878
0.0333407
0.0206398
0.0411214
0.00952926
0.0540136
-0.00215144
0.0643248
0.00070605
0.00195905
0.0038244
0.0054997
0.00720958
0.00887469
0.0105226
0.0121435
0.0137381
0.0153006
0.0168288
0.0183176
0.0197617
0.0211564
0.0224959
0.0237744
0.024985
0.0261222
0.0271791
0.0281489
0.029026
0.0298053
0.0304827
0.0310395
0.0314684
0.0317693
0.0319425
0.0319923
0.0319262
0.0317589
0.0314435
0.0312988
0.030295
0.031431
0.0275115
0.0341186
0.0210961
0.0419376
0.00979143
0.0548899
-0.00206256
0.0652158
0.00070605
0.00195048
0.00381057
0.00548021
0.00718781
0.00885286
0.0105029
0.0121288
0.0137328
0.0153111
0.0168587
0.0183719
0.0198458
0.0212746
0.022653
0.023975
0.0252345
0.0264244
0.0275388
0.0285703
0.0295125
0.0303593
0.0311056
0.0317473
0.0322653
0.0326521
0.0329079
0.0330344
0.0330345
0.0329181
0.0327011
0.0323295
0.0321483
0.0310634
0.0322163
0.0281368
0.0348901
0.0215451
0.0427464
0.0100479
0.0557566
-0.0019665
0.0660851
0.000705368
0.00194022
0.00379328
0.00545616
0.0071595
0.00882217
0.0104729
0.0121019
0.0137117
0.0153011
0.0168659
0.0184007
0.0199007
0.0213614
0.0227764
0.0241395
0.0254454
0.0266869
0.0278565
0.0289486
0.0299551
0.03087
0.0316864
0.0323998
0.0330055
0.0334845
0.0338287
0.0340399
0.0341188
0.0340695
0.0339022
0.0336357
0.0332071
0.03299
0.0318231
0.0329942
0.0287537
0.0356548
0.0219876
0.0435487
0.0103007
0.056614
-0.00187244
0.0669531
0.00070394
0.00192863
0.00377306
0.0054275
0.00712489
0.00878359
0.0104326
0.0120628
0.013677
0.0152732
0.0168504
0.0184041
0.0199277
0.0214169
0.0228658
0.0242684
0.0256179
0.0269085
0.0281323
0.0292826
0.0303524
0.0313343
0.0322221
0.0330078
0.0336881
0.034258
0.0346971
0.0349994
0.0351646
0.0351963
0.035097
0.0348788
0.0345627
0.034077
0.0338244
0.032575
0.0337654
0.0293623
0.0364134
0.0224227
0.0443443
0.0105483
0.0574647
-0.00178675
0.0678039
0.000701863
0.0019156
0.00375018
0.00539459
0.00708463
0.00873726
0.0103831
0.0120123
0.0136287
0.0152302
0.0168155
0.0183829
0.0199274
0.0214419
0.0229218
0.0243608
0.0257522
0.027089
0.0283649
0.029572
0.0307031
0.0317511
0.0327085
0.0335689
0.0343243
0.034971
0.0355047
0.0359043
0.0361633
0.0362832
0.0362666
0.0361178
0.0358482
0.0354818
0.0349398
0.034652
0.0333187
0.0345308
0.0299626
0.0371656
0.02285
0.0451315
0.0107898
0.0583029
-0.00170544
0.0686391
0.000699276
0.00190117
0.00372423
0.00535772
0.00703868
0.00868404
0.0103245
0.0119513
0.0135675
0.0151722
0.0167639
0.0183405
0.0199002
0.0214377
0.0229452
0.0244173
0.0258476
0.0272288
0.0285538
0.0298159
0.0310067
0.0321189
0.0331456
0.0340784
0.0349113
0.0356362
0.0362488
0.0367465
0.0371055
0.0373217
0.0373954
0.0373305
0.0371312
0.0368104
0.0363944
0.0357942
0.035473
0.0340541
0.0352898
0.0305548
0.0379119
0.0232695
0.0459119
0.0110278
0.0591305
-0.00162513
0.0694673
0.000695986
0.00188567
0.00369567
0.005317
0.00698752
0.00862429
0.0102579
0.01188
0.0134943
0.0150997
0.0166957
0.0182799
0.0198502
0.0214047
0.022937
0.0244391
0.0259047
0.0273275
0.0286995
0.0300136
0.0312624
0.0324373
0.0335313
0.0345364
0.0354448
0.03625
0.0369435
0.0375228
0.0379832
0.038302
0.0384746
0.0385018
0.0383876
0.0381386
0.0377654
0.0373007
0.0366418
0.0362867
0.0347824
0.0360419
0.0311399
0.0386526
0.0236816
0.0466865
0.0112602
0.0599516
-0.00154941
0.0702898
0.000692156
0.00186902
0.00366473
0.00527248
0.00693165
0.00855813
0.0101837
0.0117995
0.01341
0.0150141
0.0166117
0.0182014
0.0197807
0.0213472
0.0228982
0.0244271
0.0259251
0.0273859
0.0288019
0.030166
0.0314694
0.0327056
0.0338651
0.0349407
0.0359247
0.036808
0.0375852
0.0382478
0.0387928
0.0392155
0.0394936
0.0396222
0.0396019
0.0394392
0.0391394
0.0387142
0.0381992
0.0374827
0.0370943
0.035503
0.0367888
0.0317169
0.0393862
0.0240889
0.0474547
0.011487
0.0607662
-0.00147185
0.0710999
0.000687763
0.00185101
0.00363167
0.00522493
0.0068711
0.00848621
0.0101022
0.0117104
0.0133153
0.0149164
0.0165135
0.018106
0.0196918
0.0212686
0.0228331
0.0243823
0.0259096
0.0274051
0.028862
0.0302725
0.031629
0.0329227
0.0341467
0.0352908
0.0363482
0.03731
0.0381691
0.0389179
0.039549
0.040059
0.0404439
0.0406807
0.0407639
0.0406969
0.0404849
0.0401341
0.0396561
0.0390914
0.0383156
0.0378953
0.0362162
0.0375301
0.0322868
0.0401155
0.02449
0.0482164
0.0117101
0.0615733
-0.00139682
0.0719025
0.000682986
0.00183213
0.00359624
0.00517413
0.00680635
0.00840891
0.010014
0.011613
0.013211
0.0148072
0.0164022
0.0179951
0.0195848
0.0211694
0.0227452
0.0243099
0.0258592
0.0273862
0.0288803
0.0303344
0.0317406
0.0330899
0.0343747
0.0355861
0.0367153
0.0377539
0.0386943
0.0395283
0.0402484
0.0408476
0.0413219
0.0416683
0.0418632
0.0419014
0.0417864
0.0415246
0.0411222
0.040592
0.0399776
0.0391425
0.0386906
0.036922
0.0382651
0.0328501
0.0408402
0.0248836
0.048971
0.0119281
0.0623714
-0.00132095
0.072698
0.000677742
0.00181224
0.00355905
0.00512063
0.00673779
0.00832651
0.00991943
0.0115083
0.0130975
0.0146873
0.0162785
0.0178699
0.0194613
0.0210506
0.022636
0.0242132
0.0257794
0.0273304
0.0288584
0.0303525
0.031805
0.0332071
0.0345502
0.0358259
0.037025
0.0381394
0.0391594
0.0400781
0.0408861
0.0415771
0.0421436
0.0425816
0.0428896
0.0430415
0.0430342
0.0428707
0.0425589
0.0421049
0.0415212
0.0408571
0.0399621
0.0394794
0.0376218
0.0389953
0.0334053
0.0415583
0.0252718
0.049719
0.0121428
0.0631617
-0.0012489
0.0734816
0.000672095
0.00179151
0.00351982
0.00506451
0.00666592
0.00823981
0.00981931
0.0113965
0.0129761
0.014558
0.016143
0.0177314
0.0193222
0.0209143
0.0225056
0.0240935
0.0256743
0.0272437
0.0287977
0.0303282
0.0318232
0.0332747
0.0346732
0.0360107
0.0372774
0.038465
0.0395639
0.0405652
0.0414613
0.0422433
0.0429045
0.0434375
0.0438394
0.0441073
0.044216
0.0441623
0.0439504
0.0435871
0.0430817
0.0424443
0.041731
0.0407754
0.0402624
0.0383139
0.0397198
0.0339549
0.0422713
0.0256528
0.0504629
0.0123516
0.0639456
-0.00118007
0.0742509
0.000666018
0.00177003
0.00347908
0.00500583
0.00659054
0.00814911
0.00971421
0.0112784
0.012847
0.0144196
0.0159975
0.0175806
0.0191689
0.0207616
0.0223567
0.023952
0.0255445
0.0271303
0.0287044
0.030263
0.0317968
0.0332937
0.0347447
0.0361405
0.0374725
0.0387305
0.0399063
0.0409895
0.0419718
0.0428446
0.0436004
0.0442307
0.0447301
0.0450945
0.0453223
0.0453872
0.0452865
0.0450251
0.0446107
0.0440527
0.0433621
0.0425984
0.0415821
0.0410404
0.0389994
0.0404391
0.0344982
0.0429799
0.0260286
0.0512004
0.0125572
0.0647241
-0.00111418
0.075018
0.000659587
0.0017477
0.00343701
0.00494518
0.0065121
0.0080543
0.00960449
0.0111549
0.0127109
0.014273
0.0158421
0.0174188
0.0190029
0.0205937
0.0221905
0.0237904
0.0253918
0.0269909
0.028583
0.0301634
0.0317276
0.0332658
0.0347657
0.0362165
0.0376105
0.0389365
0.040186
0.0413498
0.042417
0.0433797
0.0442293
0.0449574
0.0455571
0.0460212
0.0463477
0.0465344
0.046555
0.0464069
0.0460951
0.0456294
0.0450185
0.0442733
0.0434608
0.0423826
0.041812
0.0396791
0.0411544
0.0350337
0.0436828
0.0264003
0.0519321
0.0127611
0.0654908
-0.00105453
0.075778
0.000652949
0.00172486
0.00339346
0.0048824
0.00643123
0.00795591
0.00949031
0.011026
0.0125688
0.0141188
0.0156781
0.0172465
0.0188249
0.0204123
0.0220082
0.0236109
0.025218
0.0268271
0.0284343
0.0300344
0.0316224
0.0331934
0.0347371
0.0362398
0.0376915
0.0390834
0.0404042
0.0416451
0.0427964
0.0438473
0.0447899
0.0456151
0.0463151
0.046883
0.0473116
0.0475997
0.0477443
0.0477193
0.0475228
0.0471607
0.0466428
0.0459789
0.0451788
0.0443173
0.0431775
0.0425788
0.0403517
0.0418637
0.0355642
0.0443825
0.0267664
0.0526602
0.0129592
0.0662511
-0.000995561
0.0765248
0.000645926
0.00170144
0.00334891
0.00481806
0.00634779
0.00785462
0.0093721
0.0108921
0.012421
0.0139582
0.0155059
0.0170651
0.0186359
0.0202183
0.0218115
0.0234147
0.0250254
0.0266416
0.0282601
0.0298766
0.0314863
0.0330831
0.0346616
0.0362113
0.0377179
0.0391711
0.0405608
0.0418764
0.0431085
0.0442467
0.0452809
0.0462026
0.0470031
0.047674
0.0482092
0.0486016
0.0488501
0.0489517
0.0488811
0.0486354
0.048222
0.047651
0.0469338
0.0460791
0.045168
0.0439663
0.0433402
0.0410184
0.042569
0.0360884
0.0450771
0.0271277
0.0533815
0.0131552
0.0670066
-0.00093475
0.0772749
0.000638586
0.00167749
0.00330323
0.00475238
0.00626262
0.00775067
0.00925067
0.0107543
0.0122676
0.0137915
0.0153268
0.0168752
0.0184371
0.0200127
0.0216016
0.0232028
0.0248153
0.0264359
0.0280631
0.0296928
0.0313201
0.0329403
0.0345469
0.036134
0.0376906
0.0392013
0.0406559
0.0420439
0.0433538
0.0445768
0.0457015
0.0467185
0.0476186
0.0483935
0.0490346
0.0495365
0.0498913
0.0500989
0.0501573
0.0500397
0.0497446
0.0492793
0.0486548
0.0478838
0.0469744
0.0460134
0.0447485
0.044097
0.0416782
0.0432692
0.036607
0.0457672
0.0274832
0.0540979
0.013346
0.0677563
-0.0008697
0.0780139
0.000631095
0.001653
0.00325672
0.00468524
0.00617564
0.00764468
0.00912623
0.0106129
0.0121101
0.013619
0.0151414
0.0166778
0.0182296
0.0197967
0.0213797
0.0229771
0.0245886
0.0262121
0.0278448
0.0294844
0.0311265
0.032766
0.0343982
0.0360152
0.0376122
0.0391758
0.040691
0.0421472
0.0435335
0.0448379
0.046051
0.0471618
0.0481609
0.0490385
0.0497866
0.0503971
0.0508643
0.0511811
0.0513468
0.0513607
0.0511955
0.0508504
0.0503324
0.0496542
0.0488292
0.0478645
0.0468541
0.0455251
0.0448477
0.042333
0.0439651
0.0371197
0.0464532
0.0278347
0.0548104
0.0135356
0.0685003
-0.000810242
0.0787354
0.000623309
0.00162828
0.00320933
0.00461714
0.00608693
0.00753672
0.00899961
0.0104681
0.0119489
0.0134419
0.0149498
0.0164736
0.0180139
0.0195717
0.0211466
0.022739
0.0243476
0.0259711
0.0276074
0.029254
0.0309073
0.0325634
0.0342167
0.0358614
0.0374902
0.0390968
0.0406682
0.0421888
0.0436463
0.0450308
0.046329
0.0475317
0.0486282
0.0496085
0.0504625
0.0511831
0.0517618
0.0521934
0.052471
0.052594
0.0525625
0.052349
0.0519523
0.0513814
0.0506495
0.0497704
0.0487484
0.0476893
0.046297
0.0455942
0.0429818
0.0446568
0.0376264
0.047135
0.0281822
0.0555182
0.0137229
0.0692373
-0.00075552
0.0794646
0.000615284
0.00160323
0.00316136
0.00454815
0.00599721
0.00742691
0.00887096
0.010321
0.0117842
0.0132609
0.0147535
0.0162631
0.0177912
0.0193378
0.0209039
0.0224892
0.0240932
0.0257149
0.0273523
0.0290036
0.0306654
0.0323341
0.0340052
0.0356735
0.0373318
0.0389726
0.0405896
0.0421695
0.0436953
0.0451545
0.0465363
0.0478278
0.0490203
0.0501013
0.0510615
0.0518914
0.0525831
0.0531295
0.0535238
0.0537613
0.0538409
0.0537629
0.0535002
0.0530511
0.0524272
0.0516397
0.0507054
0.0496276
0.0485194
0.0470628
0.046336
0.0436246
0.0453436
0.0381283
0.0478124
0.0285253
0.0562211
0.0139072
0.0699702
-0.000699778
0.0801788
0.000607079
0.00157792
0.00311277
0.00447838
0.00590658
0.00731596
0.00874043
0.010172
0.0116169
0.0130764
0.0145529
0.0160475
0.0175621
0.0190968
0.0206524
0.0222294
0.023827
0.0254449
0.0270813
0.0287347
0.0304023
0.0320808
0.0337664
0.0354537
0.0371379
0.0388105
0.0404642
0.0420923
0.0436808
0.0452115
0.0466727
0.0480509
0.0493358
0.0505168
0.0515815
0.0525209
0.0533255
0.0539873
0.0544999
0.0548563
0.0550524
0.0550869
0.0549623
0.0546487
0.0541473
0.0534686
0.0526261
0.0516365
0.0505016
0.049345
0.0478228
0.0470739
0.0442628
0.046027
0.0386242
0.0484856
0.0288623
0.0569195
0.0140908
0.0706988
-0.000652301
0.0808855
0.000598694
0.00155216
0.00306369
0.00440782
0.00581501
0.00720415
0.00860881
0.0100211
0.0114475
0.0128891
0.0143487
0.0158279
0.0173275
0.0188494
0.0203933
0.0219605
0.0235505
0.0251625
0.0267961
0.0284491
0.0301202
0.0318054
0.0335025
0.0352058
0.036911
0.0386112
0.0402991
0.0419662
0.043606
0.0452031
0.0467387
0.048201
0.0495761
0.0508536
0.0520219
0.0530696
0.0539873
0.054765
0.0553962
0.0558732
0.056191
0.0563442
0.0563329
0.0561597
0.0557956
0.0552407
0.0545059
0.0536074
0.0525633
0.0513713
0.0501656
0.0485778
0.0478058
0.0448947
0.0467062
0.0391157
0.0491548
0.0291952
0.0576121
0.0142675
0.0714132
-0.000598099
0.0815936
0.000590219
0.00152634
0.00301398
0.00433665
0.0057226
0.00709119
0.008476
0.00986883
0.0112765
0.0126999
0.0141418
0.0156041
0.0170885
0.018596
0.0201274
0.0216834
0.0232641
0.024869
0.0264977
0.0281489
0.0298203
0.0315104
0.0332153
0.034932
0.0366543
0.0383781
0.0400954
0.0417991
0.0434805
0.0451318
0.0467375
0.0482785
0.0497409
0.0511127
0.0523815
0.0535366
0.054566
0.0554606
0.0562106
0.0568096
0.0572502
0.0575275
0.0576366
0.0575786
0.0573562
0.0569401
0.0563305
0.0555411
0.0545858
0.0534855
0.0522358
0.0509814
0.0493283
0.0485343
0.0455209
0.0473811
0.0396021
0.04982
0.0295241
0.0582997
0.014439
0.0721244
-0.000539531
0.0822916
0.000581541
0.00150039
0.00296421
0.00426515
0.00562982
0.00697779
0.00834224
0.0097157
0.0111041
0.0125089
0.0139329
0.0153779
0.0168455
0.0183381
0.0198558
0.0213994
0.0229696
0.0245656
0.0261879
0.027835
0.0295053
0.0311971
0.0329078
0.0346336
0.0363707
0.0381135
0.0398564
0.0415922
0.043312
0.045008
0.0466707
0.0482854
0.0498313
0.0512935
0.0526611
0.0539206
0.0550609
0.0560713
0.0569414
0.0576626
0.0582278
0.0586307
0.0588661
0.0589304
0.0588239
0.0585518
0.0580823
0.0574177
0.0565722
0.0555593
0.054403
0.0530955
0.0517929
0.0500725
0.0492583
0.0461425
0.0480525
0.0400825
0.0504813
0.0298511
0.058983
0.0146114
0.0728371
-0.000491845
0.0829742
0.000572709
0.00147422
0.00291423
0.00419363
0.00553669
0.00686402
0.00820819
0.00956167
0.0109309
0.0123168
0.0137224
0.0151495
0.0166003
0.0180764
0.0195792
0.0211095
0.0226675
0.024254
0.0258678
0.0275092
0.0291763
0.030868
0.0325814
0.0343142
0.0360619
0.037821
0.039585
0.0413478
0.0431024
0.0448394
0.0465499
0.0482246
0.0498478
0.0513977
0.0528598
0.0542223
0.0554712
0.056596
0.057586
0.0584303
0.0591213
0.0596514
0.0600148
0.0602073
0.0602254
0.0600701
0.059746
0.0592227
0.0585023
0.0575996
0.0565297
0.0553169
0.05395
0.0525993
0.0508129
0.0499782
0.0467587
0.04872
0.0405594
0.0511397
0.0301743
0.0596632
0.0147854
0.073542
-0.000445188
0.0836698
0.00056379
0.00144791
0.00286383
0.00412182
0.00544348
0.00675003
0.00807407
0.00940753
0.0107572
0.012124
0.0135107
0.0149195
0.0163527
0.017812
0.0192987
0.0208143
0.0223594
0.0239342
0.025539
0.0271728
0.0288349
0.0305241
0.0322384
0.033975
0.0357313
0.0375024
0.0392844
0.0410705
0.0428541
0.0446281
0.0463824
0.0481074
0.0497943
0.0514256
0.0529788
0.0544406
0.0557963
0.0570341
0.0581424
0.0591102
0.0599275
0.0605866
0.0610803
0.0614032
0.0615516
0.0615216
0.0613158
0.0609396
0.0603612
0.0595839
0.0586235
0.0574959
0.0562267
0.0548011
0.0534022
0.0515471
0.050694
0.0473705
0.049384
0.0410323
0.0517952
0.0304914
0.0603394
0.0149568
0.0742407
-0.00039245
0.0843531
0.0005548
0.00142142
0.00281349
0.0040498
0.00535004
0.00663593
0.00793971
0.00925331
0.0105831
0.0119307
0.0132984
0.0146886
0.0161037
0.0175456
0.0190157
0.0205154
0.0220462
0.0236083
0.0252022
0.0268271
0.0284827
0.0301674
0.0318803
0.0336185
0.03538
0.0371609
0.0389568
0.0407622
0.0425714
0.0443765
0.0461705
0.047942
0.0496817
0.0513805
0.0530196
0.0545761
0.056036
0.0573847
0.0586099
0.0597003
0.0606449
0.0614333
0.0620595
0.0625146
0.0627959
0.0628983
0.0628193
0.0625621
0.0621321
0.0614978
0.0606632
0.0596445
0.0584578
0.0571317
0.0556477
0.0542007
0.0522773
0.0514058
0.0479772
0.0500443
0.0415002
0.0524457
0.0308053
0.06101
0.0151233
0.0749332
-0.00034681
0.0850215
0.000545738
0.00139505
0.00276303
0.00397793
0.00525689
0.00652201
0.00780544
0.00909908
0.0104092
0.011737
0.0130858
0.0144573
0.0158538
0.0172775
0.0187305
0.0202137
0.021729
0.0232771
0.0248586
0.0264733
0.0281203
0.0297994
0.0315084
0.0332465
0.0350107
0.036798
0.0386049
0.0404262
0.0422565
0.0440892
0.0459168
0.0477306
0.0495197
0.0512744
0.0529843
0.0546311
0.0561901
0.0576469
0.0589883
0.0601992
0.0612703
0.0621896
0.0629485
0.0635391
0.0639555
0.0641926
0.0642475
0.0641182
0.0638082
0.0633236
0.0626326
0.0617401
0.0606623
0.0594163
0.0580331
0.0564883
0.0549943
0.0530031
0.0521131
0.0485796
0.0507018
0.0419631
0.0530918
0.0311167
0.0616762
0.0152843
0.075617
-0.000299806
0.0856879
0.00053653
0.00136858
0.00271256
0.00390612
0.00516392
0.00640864
0.00767171
0.00894528
0.0102357
0.0115439
0.0128729
0.0142255
0.0156034
0.0170089
0.0184437
0.0199103
0.0214092
0.022942
0.0245097
0.0261125
0.0277497
0.029421
0.0311249
0.0328603
0.0346249
0.0364168
0.038231
0.0400648
0.0419127
0.0437689
0.0456257
0.0474762
0.0493097
0.0511171
0.0528862
0.0546073
0.0562607
0.0578215
0.059275
0.0606066
0.0618024
0.0628527
0.0637456
0.0644726
0.0650267
0.0654021
0.0655935
0.0655997
0.0654187
0.0650546
0.0645146
0.0637657
0.0628137
0.0616767
0.0603712
0.0589302
0.0573258
0.0557841
0.0537233
0.0528177
0.0491759
0.051354
0.0424218
0.0537362
0.0314249
0.0623381
0.0154456
0.0762975
-0.000252681
0.0863511
0.000527347
0.00134198
0.00266219
0.00383453
0.00507113
0.00629561
0.00753865
0.00879224
0.0100627
0.0113515
0.0126609
0.0139941
0.0153528
0.0167397
0.0181566
0.0196052
0.0210875
0.0226043
0.024157
0.0257462
0.0273722
0.0290338
0.0307309
0.0324615
0.0342249
0.0360176
0.037838
0.0396808
0.0415426
0.043418
0.0453005
0.0471823
0.0490556
0.0509097
0.0527349
0.0545178
0.0562502
0.0579095
0.0594712
0.0609199
0.0622408
0.0634197
0.0644478
0.0653126
0.066006
0.0665223
0.0668542
0.0669988
0.0669549
0.0667207
0.0663014
0.0657048
0.0648967
0.0638849
0.0626874
0.0613222
0.0598238
0.0581595
0.0565698
0.0544389
0.0535182
0.0497685
0.0520048
0.0428764
0.0543767
0.0317304
0.0629972
0.0156058
0.0769783
-0.000206817
0.0870085
0.000518076
0.00131555
0.00261175
0.0037632
0.00497906
0.00618305
0.00740614
0.00864003
0.00989068
0.0111596
0.0124498
0.0137633
0.0151031
0.0164707
0.0178691
0.0192996
0.0207642
0.0222643
0.0238012
0.0253759
0.0269886
0.0286398
0.0303278
0.0320524
0.0338119
0.035604
0.0374266
0.0392765
0.041149
0.0430399
0.0449432
0.046853
0.0487602
0.0506568
0.0525312
0.0543743
0.0561711
0.0579134
0.0595787
0.06114
0.0625827
0.0638911
0.065052
0.0660562
0.0668907
0.06755
0.0680249
0.0683129
0.0684089
0.068313
0.0680247
0.0675481
0.0668941
0.0660268
0.0649534
0.0636952
0.0622694
0.060712
0.0589885
0.0573516
0.0551504
0.0542141
0.0503571
0.0526516
0.0433284
0.0550139
0.0320338
0.0636528
0.0157665
0.0776563
-0.000162573
0.0876613
0.00050866
0.00128898
0.00256162
0.0036921
0.00488739
0.00607147
0.00727444
0.0084886
0.00971979
0.010969
0.0122394
0.0135337
0.014854
0.0162026
0.0175819
0.0189942
0.0204406
0.0219234
0.0234436
0.0250026
0.0266011
0.0282393
0.0299175
0.0316336
0.0333873
0.0351771
0.0369995
0.0388531
0.040734
0.0426372
0.044558
0.0464905
0.0484279
0.0503607
0.0522806
0.0541761
0.0560363
0.0578471
0.0595983
0.0612683
0.0628288
0.0642634
0.0655582
0.0666996
0.0676778
0.0684812
0.0691028
0.0695358
0.0697779
0.0698233
0.0696744
0.0693299
0.0687956
0.0680821
0.0671543
0.0660203
0.0646998
0.0632133
0.0615983
0.0598124
0.0581301
0.0558583
0.0549071
0.0509412
0.0532952
0.043775
0.0556486
0.0323336
0.0643039
0.0159264
0.078322
-0.000119675
0.0883165
0.000499314
0.00126243
0.0025116
0.00362157
0.00479622
0.00596065
0.00714395
0.00833848
0.00955002
0.0107798
0.0120306
0.0133053
0.0146061
0.0159357
0.0172956
0.0186889
0.0201173
0.0215819
0.0230851
0.0246275
0.0262106
0.0278348
0.0295004
0.0312073
0.0329533
0.0347378
0.0365591
0.0384139
0.0402992
0.0422122
0.0441473
0.0460993
0.0480613
0.0500264
0.0519855
0.0539287
0.0558452
0.0577219
0.059546
0.0613059
0.0629794
0.0645376
0.0659629
0.0672429
0.0683631
0.0693136
0.0700832
0.0706653
0.0710555
0.0712487
0.0712421
0.0710388
0.0706362
0.0700433
0.0692695
0.0682797
0.0670842
0.065702
0.0641534
0.06248
0.0606328
0.0589036
0.0565611
0.0555975
0.0515206
0.0539361
0.0442181
0.0562789
0.0326299
0.0649521
0.0160818
0.0789788
-7.21961e-05
0.0889612
0.000489919
0.00123588
0.00246162
0.0035514
0.00470589
0.00585067
0.00701463
0.00818968
0.00938178
0.010592
0.0118234
0.0130784
0.0143598
0.0156698
0.0170107
0.0183847
0.0197943
0.0212409
0.022726
0.0242514
0.0258181
0.0274273
0.0290792
0.0307741
0.0325111
0.0342888
0.0361058
0.03796
0.0398483
0.0417672
0.0437128
0.0456809
0.0476642
0.0496571
0.0516503
0.0536363
0.0556022
0.0575396
0.0594323
0.0612694
0.063037
0.0647133
0.066267
0.0676826
0.0689455
0.0700425
0.0709628
0.0716969
0.0722391
0.0725827
0.0727257
0.0726661
0.0724055
0.0719445
0.071291
0.0704561
0.0694042
0.0681443
0.0667007
0.0650907
0.0633583
0.061449
0.0596736
0.0572596
0.0562828
0.0520959
0.0545729
0.0446592
0.0569067
0.0329239
0.0655956
0.016234
0.0796386
-2.42115e-05
0.0895938
0.000480487
0.00120942
0.00241199
0.00348159
0.00461634
0.00574168
0.00688656
0.00804234